    -----------------------------------------------------------------------
          PSI4: An Open-Source Ab Initio Electronic Structure Package
                              PSI 4.0.0-beta2+ Driver

                                ==> THC Branch <==                         
                                                                           
                     Edward G. Hohenstein, Robert M. Parrish,              
                     C. David Sherrill, and Todd J. Martinez               
                                                                           
                                        00                                 
                                       0000                                
                                      000000                               
                           00         000000          00                   
                            0000      000000      00000                    
                            000000    0000000   0000000                    
                             000000   0000000 0000000                      
                              0000000 000000 0000000                       
                                000000 00000 000000                        
                        0000     000000 000 0000  000000000                
                         000000000  0000 0 000 000000000                   
                            000000000  0 0 0 000000000                     
                                0000000000000000                           
                                     000 0 0000                            
                                   00000 0  00000                          
                                  00     0      00                         


    J. M. Turney, A. C. Simmonett, R. M. Parrish, E. G. Hohenstein,
    F. A. Evangelista, J. T. Fermann, B. J. Mintz, L. A. Burns, J. J. Wilke,
    M. L. Abrams, N. J. Russ, M. L. Leininger, C. L. Janssen, E. T. Seidl,
    W. D. Allen, H. F. Schaefer, R. A. King, E. F. Valeev, C. D. Sherrill,
    and T. D. Crawford, WIREs Comput. Mol. Sci., (2011) (doi: 10.1002/wcms.93)

                         Additional Contributions by
    A. E. DePrince, M. Saitow, U. Bozkaya, A. Yu. Sokolov
    -----------------------------------------------------------------------

    Process ID:  19808
    PSI4DATADIR: /home/settje/psi4.install/share/psi/

    Using LocalCommunicator (Number of processes = 1)

    Memory level set to 256.000 MB

  ==> Input File <==

--------------------------------------------------------------------------
molecule h2 {
H
H 1 R1
H 2 R2
H 3 R3

R1 = .74
R2 = 1.74
R3 = 2.74

symmetry c1
}

plugin_load("./variational_decomp_fci.so")

set {
  basis sto-3g 
  df_basis_scf cc-pvdz-jkfit
}

set plugin_example {
  print 1
}

energy('scf')

plugin("./variational_decomp_fci.so")
--------------------------------------------------------------------------
./variational_decomp_fci.so loaded.
    Molecular point group: c1

    Geometry (in Angstrom), charge = 0, multiplicity = 1:

       Center              X                  Y                   Z       
    ------------   -----------------  -----------------  -----------------
           H          0.000000000000     0.000000000000    -1.305000000000
           H          0.000000000000     0.000000000000    -0.565000000000
           H          0.000000000000     0.000000000000     0.435000000000
           H          0.000000000000     0.000000000000     1.435000000000

  -AO BASIS SET INFORMATION:
    Name                   = STO-3G
    Total number of shells = 4
    Number of primitives   = 12
    Number of AO           = 4
    Number of SO           = 4
    Maximum AM             = 0
    Spherical Harmonics    = TRUE

  -Contraction Scheme:
    Atom   Type   All Primitives // Shells:
   ------ ------ --------------------------
       1     H     3s // 1s 
       2     H     3s // 1s 
       3     H     3s // 1s 
       4     H     3s // 1s 

  -Basis set on unique center 1: H
     S (          3.42525091           0.27693436)
       (          0.62391373           0.26783885)
       (          0.16885540           0.08347367)

  -Basis set on unique center 2: H
     S (          3.42525091           0.27693436)
       (          0.62391373           0.26783885)
       (          0.16885540           0.08347367)

  -Basis set on unique center 3: H
     S (          3.42525091           0.27693436)
       (          0.62391373           0.26783885)
       (          0.16885540           0.08347367)

  -Basis set on unique center 4: H
     S (          3.42525091           0.27693436)
       (          0.62391373           0.26783885)
       (          0.16885540           0.08347367)


*** tstart() called on fire-04-00.cluster
*** at Tue Sep  2 12:08:35 2014

	There are an even number of electrons - assuming singlet.
	Specify the multiplicity with the MULTP option in the
	input if this is incorrect


         ---------------------------------------------------------
                                   SCF
            by Justin Turney, Rob Parrish, and Andy Simmonett
                              RHF Reference
                        1 Threads,    256 MiB Core
         ---------------------------------------------------------

  ==> Geometry <==

    Molecular point group: c1

    Geometry (in Angstrom), charge = 0, multiplicity = 1:

       Center              X                  Y                   Z       
    ------------   -----------------  -----------------  -----------------
           H          0.000000000000     0.000000000000    -1.305000000000
           H          0.000000000000     0.000000000000    -0.565000000000
           H          0.000000000000     0.000000000000     0.435000000000
           H          0.000000000000     0.000000000000     1.435000000000

  Running in c1 symmetry.

  Nuclear repulsion =    2.535302558028961

  Charge       = 0
  Multiplicity = 1
  Electrons    = 4
  Nalpha       = 2
  Nbeta        = 2

  ==> Algorithm <==

  SCF Algorithm Type is DIRECT.
  DIIS enabled.
  MOM disabled.
  Fractional occupation disabled.
  Guess Type is CORE.
  Energy threshold   = 1.00e-08
  Density threshold  = 1.00e-08
  Integral threshold = 0.00e+00

  ==> Primary Basis <==

	  Basis Set: STO-3G
	    Number of shells: 4
	    Number of basis function: 4
	    Number of Cartesian functions: 4
	    Spherical Harmonics?: true
	    Max angular momentum: 0

  ==> Pre-Iterations <==

   -------------------------------------------------------
    Irrep   Nso     Nmo     Nalpha   Nbeta   Ndocc  Nsocc
   -------------------------------------------------------
     A          4       4       0       0       0       0
   -------------------------------------------------------
    Total       4       4       2       2       2       0
   -------------------------------------------------------

  Starting with a DF guess...

 OEINTS: Wrapper to libmints.
   by Justin Turney

   Calculation information:
      Number of atoms:                   4
      Number of AO shells:               4
      Number of SO shells:               4
      Number of primitives:             12
      Number of atomic orbitals:         4
      Number of basis functions:         4

      Number of irreps:                  1
      Number of functions per irrep: [   4 ]

      Overlap, kinetic, and potential integrals
        stored in file 35.

  ==> Integral Setup <==

  ==> DFJK: Density-Fitted J/K Matrices <==

    J tasked:                  Yes
    K tasked:                  Yes
    wK tasked:                  No
    OpenMP threads:              1
    Integrals threads:           1
    Memory (MB):               183
    Algorithm:                Core
    Integral Cache:           NONE
    Schwarz Cutoff:          0E+00
    Fitting Condition:       1E-12

   => Auxiliary Basis Set <=

	  Basis Set: cc-pvdz-jkfit
	    Number of shells: 36
	    Number of basis function: 92
	    Number of Cartesian functions: 100
	    Spherical Harmonics?: true
	    Max angular momentum: 2

  Minimum eigenvalue in the overlap matrix is 2.3031720743E-01.
  Using Symmetric Orthogonalization.
  SCF Guess: Core (One-Electron) Hamiltonian.

  Initial RHF energy:    -1.10509607654059

  ==> Iterations <==

                        Total Energy        Delta E     Density RMS

   @RHF iter   1:    -1.94078805116644   -8.35692e-01   0.00000e+00 
   @RHF iter   2:    -2.13699625474345   -1.96208e-01   1.50754e-01 DIIS
   @RHF iter   3:    -2.13733239712005   -3.36142e-04   6.36671e-03 DIIS
   @RHF iter   4:    -2.13735001290741   -1.76158e-05   1.61273e-03 DIIS
   @RHF iter   5:    -2.13735002595425   -1.30468e-08   4.38128e-05 DIIS
   @RHF iter   6:    -2.13735002595854   -4.29523e-12   8.63231e-07 DIIS
   @RHF iter   7:    -2.13735002595855   -3.55271e-15   1.84436e-08 DIIS

  DF guess converged.

  ==> Integral Setup <==

  ==> DirectJK: Integral-Direct J/K Matrices <==

    J tasked:                  Yes
    K tasked:                  Yes
    wK tasked:                  No
    Integrals threads:           1
    Schwarz Cutoff:          0E+00

   @RHF iter   8:    -2.13732988543311    2.01405e-05   4.37892e-10 DIIS
   @RHF iter   9:    -2.13732988543981   -6.69509e-12   9.11182e-07 DIIS
   @RHF iter  10:    -2.13732988544010   -2.95763e-13   1.68172e-07 DIIS
   @RHF iter  11:    -2.13732988544011   -7.99361e-15   3.34921e-08 DIIS

  ==> Post-Iterations <==

	Orbital Energies (a.u.)
	-----------------------

	Doubly Occupied:                                                      

	   1A     -0.678157     2A     -0.418076  

	Virtual:                                                              

	   3A      0.377695     4A      1.042554  

	Final Occupation by Irrep:
	          A 
	DOCC [     2 ]

  Energy converged.

  @RHF Final Energy:    -2.13732988544011

   => Energetics <=

    Nuclear Repulsion Energy =          2.5353025580289605
    One-Electron Energy =              -7.1527988131398903
    Two-Electron Energy =               2.4801663696708189
    DFT Functional Energy =             0.0000000000000000
    Empirical Dispersion Energy =       0.0000000000000000
    Total Energy =                     -2.1373298854401108

  ==> Properties <==

  Nuclear Dipole Moment: (a.u.)
     X:     0.0000      Y:     0.0000      Z:    -0.0000

  Electronic Dipole Moment: (a.u.)
     X:     0.0000      Y:     0.0000      Z:    -0.0618

  Dipole Moment: (a.u.)
     X:     0.0000      Y:     0.0000      Z:    -0.0618     Total:     0.0618

  Dipole Moment: (Debye)
     X:     0.0000      Y:     0.0000      Z:    -0.1571     Total:     0.1571


  Saving occupied orbitals to File 180.

*** tstop() called on fire-04-00.cluster at Tue Sep  2 12:08:35 2014
Module time:
	user time   =       0.26 seconds =       0.00 minutes
	system time =       0.01 seconds =       0.00 minutes
	total time  =          0 seconds =       0.00 minutes
Total time:
	user time   =       0.26 seconds =       0.00 minutes
	system time =       0.01 seconds =       0.00 minutes
	total time  =          0 seconds =       0.00 minutes
Reading options from the VARIATIONAL_DECOMP_FCI block
Calling plugin ./variational_decomp_fci.so.

                 1            2            3            4

    1   -1.9415409   -0.0142182    0.1454006    0.0610453
    2   -0.0142182   -1.6348585   -0.0771067    0.1213327
    3    0.1454006   -0.0771067   -1.2512697   -0.0060956
    4    0.0610453    0.1213327   -0.0060956   -0.8178366


-4.726324
-4.414454
-4.146826
-4.107477
-4.042618
-3.776837
-3.766869
-3.671009
-3.572957
-3.491731
-3.471489
-3.469510
-3.355679
-3.262416
-3.217815
-3.069632
-3.025977
-3.010267
-2.931786
-2.838139
-2.830891
-2.742118
-2.639560
-2.604128
-2.459462
-2.456747
-2.365763
-2.357895
-2.266310
-1.956739
-1.956416
-1.900315
-1.830226
-1.607962
-1.464430
-1.276749

                 1            2            3            4

    1   -2.3826444   -0.0218160    0.1590013    0.0736115
    2   -0.0218160   -2.0692819   -0.0872620    0.1432720
    3    0.1590013   -0.0872620   -1.6976172   -0.0074665
    4    0.0736115    0.1432720   -0.0074665   -1.3037086


+++++++++++++++++++++++ TEST AUGMENTED SIGMA ++++++++++++++++++++++++++++++++
		/// P ///
test P 4

                 1            2            3            4            5            6            7

    1    0.0000000    1.0000000    0.0000000    0.0000000    0.0000000    0.0000000    0.0000000
    2    0.1430282    0.0000000    0.4664082    0.1772800    0.5573982    0.4821637    0.4329012
    3    0.3799287    0.0000000    0.2203308    0.5201347   -0.4935962   -0.3309561    0.4282514
    4    0.3992418    0.0000000    0.2845583   -0.7673641   -0.3506517    0.1590143    0.1501425


overlap P 4

                 1            2            3            4

    1    1.0000000    0.0000000    0.0000000    0.0000000
    2    0.0000000    1.0000000   -0.0000000   -0.0000000
    3    0.0000000   -0.0000000    1.0000000   -0.0000000
    4    0.0000000   -0.0000000   -0.0000000    1.0000000


test sigmaP 4

                 1            2            3            4            5            6            7

    1    0.0000000    0.0000000    0.0000000    0.0000000    0.0000000    0.0000000    0.0000000
    2   -1.3179852    0.0062782   -1.3067502   -0.3857824   -1.2565974   -1.0946638   -0.9786220
    3   -1.9348098   -0.0045566   -0.7347764   -0.9799086    0.9455513    0.6389729   -0.7989543
    4   -1.9957512   -0.0362839   -0.9924038    1.4606680    0.6335790   -0.3045212   -0.3022113


P quad 4

                 1            2            3

    1    0.0000000    0.0062782   -0.0045566
    2    0.0000000   -2.5182586   -0.3038865
    3    0.0000000   -0.4258754   -2.4270140


		/// Q ///
test Q 4

                 1            2            3            4            5            6            7

    1    0.0000000    1.0000000    0.0000000    0.0000000    0.0000000    0.0000000    0.0000000
    2    0.1430282    0.0000000    0.4664082    0.1772800    0.5573982    0.4821637    0.4329012
    3    0.3799287    0.0000000    0.2203308    0.5201347   -0.4935962   -0.3309561    0.4282514
    4    0.3992418    0.0000000    0.2845583   -0.7673641   -0.3506517    0.1590143    0.1501425


overlap Q 4

                 1            2            3            4

    1    1.0000000    0.0000000    0.0000000    0.0000000
    2    0.0000000    1.0000000   -0.0000000   -0.0000000
    3    0.0000000   -0.0000000    1.0000000   -0.0000000
    4    0.0000000   -0.0000000   -0.0000000    1.0000000


test sigmaQ 4

                 1            2            3            4            5            6            7

    1    0.0000000    0.0000000    0.0000000    0.0000000    0.0000000    0.0000000    0.0000000
    2   -1.3179852    0.0062782   -1.3067502   -0.3857824   -1.2565974   -1.0946638   -0.9786220
    3   -1.9348098   -0.0045566   -0.7347764   -0.9799086    0.9455513    0.6389729   -0.7989543
    4   -1.9957512   -0.0362839   -0.9924038    1.4606680    0.6335790   -0.3045212   -0.3022113


Q quad 4

                 1            2            3

    1    0.0000000    0.0062782   -0.0045566
    2    0.0000000   -2.5182586   -0.3038865
    3    0.0000000   -0.4258754   -2.4270140



*** PSI4 exiting successfully. Buy a developer a beer!
